! Sonnet Data File
! From: em Version : 18.56
! From Project: cpw_mcp_test6
! Data is De-embedded 
! Data File Written: 06/21/2025 20:07:32
! ->  Created by pysonnet 0.0.4
!< HDATE 06/21/2025 19:30:57
!< MDATE 06/21/2025 19:30:57
# GHZ S RI R 50.00000
7.050000000000001 0.3230332743598 0.2243296287916 0.5281477776275 -0.752556589719 0.5281477776275 -0.752556589719 0.3208335725517 0.2274969842976
7.050500000000000 0.3231081585338 0.2242948479729 0.5280602186657 -0.752595649485 0.5280602186657 -0.752595649485 0.3208736201458 0.2275133825823
7.051000000000000 0.3231847124480 0.2242592126540 0.5279713462687 -0.752635141868 0.5279713462687 -0.752635141868 0.3209141175893 0.2275307136269
7.051500000000001 0.3232630025482 0.2242226457801 0.5278810946183 -0.752675080916 0.5278810946183 -0.752675080916 0.3209550775861 0.2275490042452
7.052000000000000 0.3233431230348 0.2241850964923 0.5277893885706 -0.752715490764 0.5277893885706 -0.752715490764 0.3209965256651 0.2275683067255
7.052500000000000 0.3234251750404 0.2241465101400 0.5276961474260 -0.752756397299 0.5276961474260 -0.752756397299 0.3210384892597 0.2275886772047
7.053000000000001 0.3235092672785 0.2241068279219 0.5276012844066 -0.752797828321 0.5276012844066 -0.752797828321 0.3210809978897 0.2276101760291
7.053500000000001 0.3235955167682 0.2240659864838 0.5275047060728 -0.752839813721 0.5275047060728 -0.752839813721 0.3211240833629 0.2276328681566
7.054000000000000 0.3236840496420 0.2240239174692 0.5274063116716 -0.752882385684 0.5274063116716 -0.752882385684 0.3211677800013 0.2276568236055
7.054500000000001 0.3237750020514 0.2239805470163 0.5273059924067 -0.752925578914 0.5273059924067 -0.752925578914 0.3212121248945 0.2276821179570
7.055000000000001 0.3238685211807 0.2239357951918 0.5272036306197 -0.752969430882 0.5272036306197 -0.752969430882 0.3212571581842 0.2277088329193
7.055500000000000 0.3239647663888 0.2238895753548 0.5270990988691 -0.753013982110 0.5270990988691 -0.753013982110 0.3213029233847 0.2277370569609
7.056000000000000 0.3240639104935 0.2238417934375 0.5269922588915 -0.753059276485 0.5269922588915 -0.753059276485 0.3213494677449 0.2277668860243
7.056500000000001 0.3241661412237 0.2237923471325 0.5268829604290 -0.753105361619 0.5268829604290 -0.753105361619 0.3213968426573 0.2277984243331
7.057000000000000 0.3242716628622 0.2237411249707 0.5267710398988 -0.753152289252 0.5267710398988 -0.753152289252 0.3214451041224 0.2278317853040
7.057500000000000 0.3243806981120 0.2236880052726 0.5266563188832 -0.753200115705 0.5266563188832 -0.753200115705 0.3214943132768 0.2278670925843
7.058000000000001 0.3244934902200 0.2236328549513 0.5265386024088 -0.753248902403 0.5265386024088 -0.753248902403 0.3215445369960 0.2279044812310
7.058500000000000 0.3246103054017 0.2235755281450 0.5264176769811 -0.753298716464 0.5264176769811 -0.753298716464 0.3215958485835 0.2279440990586
7.059000000000000 0.3247314356173 0.2235158646461 0.5262933083314 -0.753349631376 0.5262933083314 -0.753349631376 0.3216483285621 0.2279861081816
7.059500000000001 0.3248572017611 0.2234536880936 0.5261652388275 -0.753401727766 0.5261652388275 -0.753401727766 0.3217020655846 0.2280306867863
7.060000000000000 0.3249879573365 0.2233888038852 0.5260331844870 -0.753455094292 0.5260331844870 -0.753455094292 0.3217571574863 0.2280780311731
7.060500000000000 0.3251240927054 0.2233209967569 0.5258968315197 -0.753509828668 0.5258968315197 -0.753509828668 0.3218137125053 0.2281283581182
7.061000000000001 0.3252660400208 0.2232500279666 0.5257558323123 -0.753566038847 0.5257558323123 -0.753566038847 0.3218718507018 0.2281819076147
7.061500000000001 0.3254142789720 0.2231756320050 0.5256098007451 -0.753623844396 0.5256098007451 -0.753623844396 0.3219317056178 0.2282389460659
7.062000000000000 0.3255693435056 0.2230975127365 0.5254583067084 -0.753683378106 0.5254583067084 -0.753683378106 0.3219934262231 0.2282997700206
7.062500000000000 0.3257318297188 0.2230153388538 0.5253008696552 -0.753744787865 0.5253008696552 -0.753744787865 0.3220571792082 0.2283647105611
7.063000000000001 0.3259024051725 0.2229287384985 0.5251369509851 -0.753808238865 0.5251369509851 -0.753808238865 0.3221231516999 0.2284341384798
7.063500000000000 0.3260818199300 0.2228372928632 0.5249659450053 -0.753873916208 0.5249659450053 -0.753873916208 0.3221915544899 0.2285084704169
7.063869241855317 0.3262204804013 0.2227663764107 0.5248347131764 -0.753923967949 0.5248347131764 -0.753923967949 0.3222437673593 0.2285667843413
7.064000000000000 0.3262709197074 0.2227405285431 0.5247871681498 -0.753942027994 0.5247871681498 -0.753942027994 0.3222626258969 0.2285881761712
7.064230022981918 0.3263614259364 0.2226940809599 0.5247021032732 -0.753974243698 0.5247021032732 -0.753974243698 0.3222962914091 0.2286267931197
7.064500000000001 0.3264706616217 0.2226379083432 0.5245998460487 -0.754012809005 0.5245998460487 -0.754012809005 0.3223366364096 0.2286737874565
7.064582537247128 0.3265047306710 0.2226203639742 0.5245680427989 -0.754024767778 0.5245680427989 -0.754024767778 0.3223491570758 0.2286885283537
7.064926974076037 0.3266504699221 0.2225451819629 0.5244324584239 -0.754075564497 0.5244324584239 -0.754075564497 0.3224023950776 0.2287520225233
7.065000000000000 0.3266821331551 0.2225288201635 0.5244030979355 -0.754086525114 0.5244030979355 -0.754086525114 0.3224138943013 0.2287659084481
7.065263518553288 0.3267987202241 0.2224684904491 0.5242952759450 -0.754126658160 0.5242952759450 -0.754126658160 0.3224560364350 0.2288173090026
7.065500000000000 0.3269065751300 0.2224125634784 0.5241959177254 -0.754163478604 0.5241959177254 -0.754163478604 0.3224947524630 0.2288652285595
7.065592351522535 0.3269495593654 0.2223902439375 0.5241564202421 -0.754178073073 0.5241564202421 -0.754178073073 0.3225101124925 0.2288844220757
7.065913649683619 0.3271030664264 0.2223103958809 0.5240158152353 -0.754229833549 0.5240158152353 -0.754229833549 0.3225646549415 0.2289533969533
7.066000000000001 0.3271454097195 0.2222883327775 0.5239771509075 -0.754244014607 0.5239771509075 -0.754244014607 0.3225796167745 0.2289725380220
7.066227585687519 0.3272593218166 0.2222288986457 0.5238733838419 -0.754281963916 0.5238733838419 -0.754281963916 0.3226196958422 0.2290242697897
7.066500000000000 0.3274002748289 0.2221551971438 0.5237454661301 -0.754328528971 0.5237454661301 -0.754328528971 0.3226689564310 0.2290887470100
7.066534328229128 0.3274184073127 0.2221457034759 0.5237290479313 -0.754334488519 0.5237290479313 -0.754334488519 0.3226752676468 0.2290970776994
7.066834042137898 0.3275804060978 0.2220607604575 0.5235827282804 -0.754387431728 0.5235827282804 -0.754387431728 0.3227314032232 0.2291718587750
7.067000000000000 0.3276730666071 0.2220120748744 0.5234993199977 -0.754417477904 0.5234993199977 -0.754417477904 0.3227633167833 0.2292149092911
7.067126888466414 0.3277454027999 0.2219740184794 0.5234343445278 -0.754440817939 0.5234343445278 -0.754440817939 0.3227881358791 0.2292486521050
7.067413024576938 0.3279134835318 0.2218854251956 0.5232838151276 -0.754494671584 0.5232838151276 -0.754494671584 0.3228454993858 0.2293274977924
7.067500000000001 0.3279659924194 0.2218577016800 0.5232369131127 -0.754511389917 0.5232369131127 -0.754511389917 0.3228633354309 0.2293522517003
7.067692604225968 0.3280847359310 0.2217949269841 0.5231310573020 -0.754549017128 0.5231310573020 -0.754549017128 0.3229035280046 0.2294084369727
7.067965777646855 0.3282592492002 0.2217024689062 0.5229759869932 -0.754603879076 0.5229759869932 -0.754603879076 0.3229622565110 0.2294915118331
7.068000000000001 0.3282816374162 0.2216905904890 0.5229561347099 -0.754610880706 0.5229561347099 -0.754610880706 0.3229697625739 0.2295022111845
7.068232691630539 0.3284371141484 0.2216079946630 0.5228185188151 -0.754659281977 0.5228185188151 -0.754659281977 0.3230217202219 0.2295767656325
7.068493489604421 0.3286184232321 0.2215114465520 0.5226585660031 -0.754715250423 0.5226585660031 -0.754715250423 0.3230819550225 0.2296642427201
7.068500000000000 0.3286230489459 0.2215089801495 0.5226544922760 -0.754716671856 0.5226544922760 -0.754716671856 0.3230834869980 0.2296664817834
7.068748311709440 0.3288032705977 0.2214127654208 0.5224960403640 -0.754771809052 0.5224960403640 -0.754771809052 0.3231429973932 0.2297539885569
7.068997294875373 0.3289917521236 0.2213118906208 0.5223308522243 -0.754828982549 0.5223308522243 -0.754828982549 0.3232048844383 0.2298460497350
7.069000000000001 0.3289938446564 0.2213107692847 0.5223290211787 -0.754829614565 0.5223290211787 -0.754829614565 0.3232055695959 0.2298470748058
7.069240572894417 0.3291839654634 0.2212087599581 0.5221629103775 -0.754886795648 0.5221629103775 -0.754886795648 0.3232676539152 0.2299404739993
7.069478276493087 0.3293800100892 0.2211033096435 0.5219921220317 -0.754945273130 0.5219921220317 -0.754945273130 0.3233313442639 0.2300373102682
7.069500000000001 0.3293983524134 0.2210934300352 0.5219761673542 -0.754950720023 0.5219761673542 -0.754950720023 0.3233372871052 0.2300463967301
7.069710533402456 0.3295799873352 0.2209954742409 0.5218183927542 -0.755004439824 0.5218183927542 -0.755004439824 0.3233959946371 0.2301366086558
7.069937468426794 0.3297840004430 0.2208851866136 0.5216416264162 -0.755064320605 0.5216416264162 -0.755064320605 0.3234616449326 0.2302384204934
7.070000000000000 0.3298417935264 0.2208538941819 0.5215916331946 -0.755081198717 0.5215916331946 -0.755081198717 0.3234801898851 0.2302673512386
7.070159203510634 0.3299921546058 0.2207723778691 0.5214617251370 -0.755124940391 0.5214617251370 -0.755124940391 0.3235283358245 0.2303427983523
7.070375857804299 0.3302045570136 0.2206569773021 0.5212785892253 -0.755186324141 0.5212785892253 -0.755186324141 0.3235961087971 0.2304497960663
7.070500000000000 0.3303305257608 0.2205884007579 0.5211701724281 -0.755222511880 0.5211701724281 -0.755222511880 0.3236361792795 0.2305134745738
7.070587547727925 0.3304213168995 0.2205389123352 0.5210921171212 -0.755248496854 0.5210921171212 -0.755248496854 0.3236650061787 0.2305594687550
7.070794387034023 0.3306425455861 0.2204181084582 0.5209022053357 -0.755311483559 0.5209022053357 -0.755311483559 0.3237350711766 0.2306718728470
7.070996486868602 0.3308683565318 0.2202944891648 0.5207087483896 -0.755375309315 0.5207087483896 -0.755375309315 0.3238063479137 0.2307870661040
7.071000000000001 0.3308723701973 0.2202922890628 0.5207053131539 -0.755376439656 0.5207053131539 -0.755376439656 0.3238076127698 0.2307891176430
7.071193955830898 0.3310988653779 0.2201679758876 0.5205116387513 -0.755439999202 0.5205116387513 -0.755439999202 0.3238788814649 0.2309051076450
7.071386900031724 0.3313341899969 0.2200384879305 0.5203107667721 -0.755505578315 0.5203107667721 -0.755505578315 0.3239527178968 0.2310260579705
7.071500000000000 0.3314770577319 0.2199597128385 0.5201889778626 -0.755545172637 0.5201889778626 -0.755545172637 0.3239974492858 0.2310996948471
7.071575423150497 0.3315744505396 0.2199059423991 0.5201060206222 -0.755572071756 0.5201060206222 -0.755572071756 0.3240279043055 0.2311499789879
7.071759626490942 0.3318197694841 0.2197702541283 0.5198972862231 -0.755639504624 0.5198972862231 -0.755639504624 0.3241044888588 0.2312769340361
7.071939609035532 0.3320702716845 0.2196313356084 0.5196844471803 -0.755707902006 0.5196844471803 -0.755707902006 0.3241825208376 0.2314069879112
7.072000000000000 0.3321568495981 0.2195832382417 0.5196109528053 -0.755731436644 0.5196109528053 -0.755731436644 0.3242094537630 0.2314520299955
7.072115467498680 0.3323260844196 0.2194890969067 0.5194673847134 -0.755777288963 0.5194673847134 -0.755777288963 0.3242620506794 0.2315402068926
7.072287296378703 0.3325873374425 0.2193434455890 0.5192459775858 -0.755847690520 0.5192459775858 -0.755847690520 0.3243431300227 0.2316766587687
7.072455188008608 0.3328541630306 0.2191942866358 0.5190201020311 -0.755919131651 0.5190201020311 -0.755919131651 0.3244258117537 0.2318164128631
7.072500000000001 0.3329274164839 0.2191532665731 0.5189581321333 -0.755938665555 0.5189581321333 -0.755938665555 0.3244484911262 0.2318548465485
7.072619232605695 0.3331266960349 0.2190415223573 0.5187896316800 -0.755991637263 0.5187896316800 -0.755991637263 0.3245101500539 0.2319595400618
7.072779518320053 0.3334050739308 0.2188850523047 0.5185544374842 -0.756065232181 0.5185544374842 -0.756065232181 0.3245962004494 0.2321061128397
7.072936131281915 0.3336894368682 0.2187247731788 0.5183143876387 -0.756139941126 0.5183143876387 -0.756139941126 0.3246840198614 0.2322562052875
7.073000000000000 0.3338091112586 0.2186571858138 0.5182134168422 -0.756171245024 0.5182134168422 -0.756171245024 0.3247209588154 0.2323194776391
7.073089155647943 0.3339799277212 0.2185605787346 0.5180693475034 -0.756215788699 0.5180693475034 -0.756215788699 0.3247736666590 0.2324098931390
7.073238673646452 0.3342766921401 0.2183923596833 0.5178191795214 -0.756292799356 0.5178191795214 -0.756292799356 0.3248652007143 0.2325672537989
7.073384765621598 0.3345798786009 0.2182200035906 0.5175637431365 -0.756370997386 0.5175637431365 -0.756370997386 0.3249586834578 0.2327283663698
7.073500000000000 0.3348288573006 0.2180780899966 0.5173540695698 -0.756434862971 0.5173540695698 -0.756434862971 0.3250354403437 0.2328609200080
7.073527510076543 0.3348896384556 0.2180433947711 0.5173028947092 -0.756450406888 0.5173028947092 -0.756450406888 0.3250541779364 0.2328933116807
7.073666983715650 0.3352061259843 0.2178624141793 0.5170364874295 -0.756531051737 0.5170364874295 -0.756531051737 0.3251517488742 0.2330621723134
7.073803261485691 0.3355294984431 0.2176769392963 0.5167643712292 -0.756612955561 0.5167643712292 -0.756612955561 0.3252514627345 0.2332350326320
7.073936416616123 0.3358599161168 0.2174868440131 0.5164863926906 -0.756696141707 0.5164863926906 -0.756696141707 0.3253533877843 0.2334119788092
7.074000000000001 0.3360230298880 0.2173927863633 0.5163491835872 -0.756737024606 0.5163491835872 -0.756737024606 0.3254037235941 0.2334994430546
7.074066520658442 0.3361975423664 0.2172919985090 0.5162023949552 -0.756780633203 0.5162023949552 -0.756780633203 0.3254575941603 0.2335930988552
7.074193643524628 0.3365425436797 0.2170922691258 0.5159122176282 -0.756866452729 0.5159122176282 -0.756866452729 0.3255641539390 0.2337784826447
7.074317853524709 0.3368950897199 0.2168875182377 0.5156156966829 -0.756953622573 0.5156156966829 -0.756953622573 0.3256731412069 0.2339682219451
7.074439217403477 0.3372553533745 0.2166776041163 0.5153126643611 -0.757042164586 0.5153126643611 -0.757042164586 0.3257846321354 0.2341624104432
7.074500000000000 0.3374419976261 0.2165685822334 0.5151556552352 -0.757087827328 0.5151556552352 -0.757087827328 0.3258424449741 0.2342631265048
7.074557800376345 0.3376235108014 0.2164623807910 0.5150029490729 -0.757132100147 0.5150029490729 -0.757132100147 0.3258987050564 0.2343611437732
7.074673666164394 0.3379997414773 0.2162416979037 0.5146863752932 -0.757223450103 0.5146863752932 -0.757223450103 0.3260154405429 0.2345645195432
7.074786877028615 0.3383842282436 0.2160154005589 0.5143627634557 -0.757316234728 0.5143627634557 -0.757316234728 0.3261349214897 0.2347726373617
7.074897493803363 0.3387771573491 0.2157833291678 0.5140319298466 -0.757410473663 0.5140319298466 -0.757410473663 0.3262572331995 0.2349855988638
7.075000000000000 0.3391576963387 0.2155580685211 0.5137114874345 -0.757501210863 0.5137114874345 -0.757501210863 0.3263759309990 0.2351921596699
7.075005575929048 0.3391787184969 0.2155453192873 0.5136936864928 -0.757506185860 0.5136936864928 -0.757506185860 0.3263824634710 0.2352035077373
7.075111181484076 0.3395891048836 0.2153012014529 0.5133478410509 -0.757603389518 0.5133478410509 -0.757603389518 0.3265107026894 0.2354264697469
7.075214367216056 0.3400085132421 0.2150508010051 0.5129941966915 -0.757702102022 0.5129941966915 -0.757702102022 0.3266420439219 0.2356545927595
7.075315188572293 0.3404371438795 0.2147939379098 0.5126325519820 -0.757802339868 0.5126325519820 -0.757802339868 0.3267765830155 0.2358879867675
7.075413699729588 0.3408752007145 0.2145304265731 0.5122627007671 -0.757904118589 0.5122627007671 -0.757904118589 0.3269144186983 0.2361267639114
7.075500000000001 0.3412756545988 0.2142886507478 0.5119243580025 -0.757996581994 0.5119243580025 -0.757996581994 0.3270407328966 0.2363452533020
7.075509953623343 0.3413228913124 0.2142600756467 0.5118844320462 -0.758007452682 0.5118844320462 -0.758007452682 0.3270556526857 0.2363710385019
7.075604001976012 0.3417804269184 0.2139826878297 0.5114975298488 -0.758112355517 0.5114975298488 -0.758112355517 0.3272003897886 0.2366209270405
7.075695895324889 0.3422480224860 0.2136980596606 0.5111017731073 -0.758218839253 0.5111017731073 -0.758218839253 0.3273487380268 0.2368765482399
7.075785683049271 0.3427258967062 0.2134059813018 0.5106969355270 -0.758326914740 0.5106969355270 -0.758326914740 0.3275008087470 0.2371380230401
7.075873413396985 0.3432142720303 0.2131062363188 0.5102827854537 -0.758436591424 0.5102827854537 -0.758436591424 0.3276567167438 0.2374054746278
7.075959133510318 0.3437133746915 0.2127986014479 0.5098590857388 -0.758547877235 0.5098590857388 -0.758547877235 0.3278165803853 0.2376790284497
7.076000000000001 0.3439593853905 0.2126464799530 0.5096500680033 -0.758602435454 0.5096500680033 -0.758602435454 0.3278955796205 0.2378139454477
7.076042889451352 0.3442234347217 0.2124828463580 0.5094255936024 -0.758660778482 0.5094255936024 -0.758660778482 0.3279805217441 0.2379588122268
7.076124726226707 0.3447446859641 0.2121587334029 0.5089820604925 -0.758775299728 0.5089820604925 -0.758775299728 0.3281486667335 0.2382449559647
7.076204687811736 0.3452773660826 0.2118260173638 0.5085282319432 -0.758891443668 0.5085282319432 -0.758891443668 0.3283211452461 0.2385375919639
7.076282817174148 0.3458217165657 0.2114844451847 0.5080638474292 -0.759009210994 0.5080638474292 -0.759009210994 0.3284980913012 0.2388368548264
7.076359156297099 0.3463779827241 0.2111337556961 0.5075886402201 -0.759128600257 0.5075886402201 -0.759128600257 0.3286796431932 0.2391428814594
7.076433746201751 0.3469464136861 0.2107736793294 0.5071023372277 -0.759249607715 0.5071023372277 -0.759249607715 0.3288659436503 0.2394558110773
7.076500000000000 0.3474733615154 0.2104383253262 0.5066508742195 -0.759360892258 0.5066508742195 -0.759360892258 0.3290393621002 0.2397460840743
7.076506626969320 0.3475272623818 0.2104039378223 0.5066046588573 -0.759372227181 0.5066046588573 -0.759372227181 0.3290571399939 0.2397757852003
7.076577837762605 0.3481207855258 0.2100242439116 0.5060953188518 -0.759496449852 0.5060953188518 -0.759496449852 0.3292533843082 0.2401029476488
7.076647416847038 0.3487272435904 0.2096343010171 0.5055740241349 -0.759622264136 0.5055740241349 -0.759622264136 0.3294548336127 0.2404374445362
7.076715401611247 0.3493469007707 0.2092338029126 0.5050404746543 -0.759749655468 0.5050404746543 -0.759749655468 0.3296616500431 0.2407794242554
7.076781828587142 0.3499800249418 0.2088224333871 0.5044943632201 -0.759878606111 0.5044943632201 -0.759878606111 0.3298740010360 0.2411290374629
7.076846733469553 0.3506268876105 0.2083998658918 0.5039353753425 -0.760009094955 0.5039353753425 -0.760009094955 0.3300920595249 0.2414864370573
7.076910151135404 0.3512877638494 0.2079657631787 0.5033631890706 -0.760141097295 0.5033631890706 -0.760141097295 0.3303160041359 0.2418517781549
7.076972115662453 0.3519629322315 0.2075197769211 0.5027774748237 -0.760274584606 0.5027774748237 -0.760274584606 0.3305460193990 0.2422252180564
7.077000000000001 0.3522767879301 0.2073115958585 0.5025048004592 -0.760336165716 0.5025048004592 -0.760336165716 0.3306533697360 0.2423988791925
7.077032660347614 0.3526526747435 0.2070615473259 0.5021778952279 -0.760409524296 0.5021778952279 -0.760409524296 0.3307822959581 0.2426069162115
7.077091817724838 0.3533572766950 0.2065907027321 0.5015641049469 -0.760545879456 0.5015641049469 -0.760545879456 0.3310250307960 0.2429970341758
7.077149619582604 0.3540770266105 0.2061068591917 0.5009357505159 -0.760683608589 0.5009357505159 -0.760683608589 0.3312744274605 0.2433957355608
7.077206096980992 0.3548122161095 0.2056096200425 0.5002924701703 -0.760822665327 0.5002924701703 -0.760822665327 0.3315306963055 0.2438031859775
7.077261280268381 0.3555631397725 0.2050985754610 0.4996338936797 -0.760962998132 0.4996338936797 -0.760962998132 0.3317940547310 0.2442195529728
7.077315199097752 0.3563300949887 0.2045733020062 0.4989596421791 -0.761104549988 0.4989596421791 -0.761104549988 0.3320647274406 0.2446450059567
7.077367882442626 0.3571133817917 0.2040333621436 0.4982693279993 -0.761247258062 0.4982693279993 -0.761247258062 0.3323429467020 0.2450797161215
7.077419358612630 0.3579133026726 0.2034783037560 0.4975625545024 -0.761391053363 0.4975625545024 -0.761391053363 0.3326289526162 0.2455238563510
7.077469655268709 0.3587301623760 0.2029076596409 0.4968389159158 -0.761535860373 0.4968389159158 -0.761535860373 0.3329229933987 0.2459776011208
7.077500000000001 0.3592408425426 0.2025489293435 0.4963855307880 -0.761625343036 0.4963855307880 -0.761625343036 0.3331078447917 0.2462613703428
7.077518799437994 0.3595642676771 0.2023209469887 0.4960979971693 -0.761681596666 0.4960979971693 -0.761681596666 0.3332253256663 0.2464411263865
7.077566817528320 0.3604159271340 0.2017176668462 0.4953393737333 -0.761828172500 0.4953393737333 -0.761828172500 0.3335362147348 0.2469146094627
7.077613735342418 0.3612854508184 0.2010973035669 0.4945626114655 -0.761975490394 0.4945626114655 -0.761975490394 0.3338559349259 0.2473982288863
7.077659578091781 0.3621731500236 0.2004593242380 0.4937672664531 -0.762123444683 0.4937672664531 -0.762123444683 0.3341847698835 0.2478921642687
7.077704370410214 0.3630793369391 0.1998031781004 0.4929528848689 -0.762271921045 0.4929528848689 -0.762271921045 0.3345230128968 0.2483965961364
7.077748136367064 0.3640043243062 0.1991282959434 0.4921190028253 -0.762420796015 0.4921190028253 -0.762420796015 0.3348709672387 0.2489117057508
7.077790899480161 0.3649484250379 0.1984340894881 0.4912651462403 -0.762569936461 0.4912651462403 -0.762569936461 0.3352289465077 0.2494376749183
7.077832682728453 0.3659119518058 0.1977199507534 0.4903908307088 -0.762719199049 0.4903908307088 -0.762719199049 0.3355972749845 0.2499746857787
7.077873508564351 0.3668952165982 0.1969852514043 0.4894955613825 -0.762868429671 0.4894955613825 -0.762868429671 0.3359762879930 0.2505229205789
7.077913398925797 0.3678985302389 0.1962293420847 0.4885788328589 -0.763017462848 0.4885788328589 -0.763017462848 0.3363663322765 0.2510825614248
7.077952375248052 0.3689222018652 0.1954515517337 0.4876401290827 -0.763166121107 0.4876401290827 -0.763166121107 0.3367677663803 0.2516537900142
7.077990458475216 0.3699665383706 0.1946511868894 0.4866789232614 -0.763314214327 0.4866789232614 -0.763314214327 0.3371809610435 0.2522367873483
7.078000000000000 0.3702353584567 0.1944440355393 0.4864309159435 -0.763351748147 0.4864309159435 -0.763351748147 0.3372879230974 0.2523868935593
7.078027669071475 0.3710318438012 0.1938275309703 0.4856946777899 -0.763461539055 0.4856946777899 -0.763461539055 0.3376062996004 0.2528317334179
7.078064027032109 0.3721184187047 0.1929798435514 0.4846868441963 -0.763607877783 0.4846868441963 -0.763607877783 0.3380441783914 0.2534388068676
7.078099551894228 0.3732265594332 0.1921073596183 0.4836548631010 -0.763752998207 0.4836548631010 -0.763752998207 0.3384950071834 0.2540581846330
7.078134262747273 0.3743565573968 0.1912092888113 0.4825981641953 -0.763896652436 0.4825981641953 -0.763896652436 0.3389592095971 0.2546900415485
7.078168178243271 0.3755086982554 0.1902848146588 0.4815161662454 -0.764038576175 0.4815161662454 -0.764038576175 0.3394372235418 0.2553345499278
7.078201316606865 0.3766832610585 0.1893330937980 0.4804082771169 -0.764178487870 0.4804082771169 -0.764178487870 0.3399295016572 0.2559918791152
7.078233695645100 0.3778805173255 0.1883532551835 0.4792738938228 -0.764316087812 0.4792738938228 -0.764316087812 0.3404365117660 0.2566621949965
7.078265332756994 0.3791007300536 0.1873443992927 0.4781124026061 -0.764451057210 0.4781124026061 -0.764451057210 0.3409587373270 0.2573456594849
7.078296244942890 0.3803441526655 0.1863055973208 0.4769231790492 -0.764583057214 0.4769231790492 -0.764583057214 0.3414966778935 0.2580424299642
7.078326448813584 0.3816110278850 0.1852358903733 0.4757055882173 -0.764711727908 0.4757055882173 -0.764711727908 0.3420508495831 0.2587526586917
7.078355960599260 0.3829015865305 0.1841342886540 0.4744589848424 -0.764836687256 0.4744589848424 -0.764836687256 0.3426217855397 0.2594764921667
7.078384796158206 0.3842160462337 0.1829997706559 0.4731827135469 -0.764957530005 0.4731827135469 -0.764957530005 0.3432100364051 0.2602140704499
7.078412970985335 0.3855546100775 0.1818312823549 0.4718761091092 -0.765073826549 0.4718761091092 -0.765073826549 0.3438161707865 0.2609655264379
7.078440500220515 0.3869174651391 0.1806277364071 0.4705384967800 -0.765185121747 0.4705384967800 -0.765185121747 0.3444407757264 0.2617309850943
7.078467398656703 0.3883047809454 0.1793880113601 0.4691691926509 -0.765290933695 0.4691691926509 -0.765290933695 0.3450844571638 0.2625105626245
7.078493680747891 0.3897167078299 0.1781109508746 0.4677675040786 -0.765390752462 0.4677675040786 -0.765390752462 0.3457478403938 0.2633043656018
7.078500000000000 0.3900648771374 0.1777936304861 0.4674205886769 -0.765414132037 0.4674205886769 -0.765414132037 0.3459127255516 0.2635001723485
7.078519360616875 0.3911533751917 0.1767953629674 0.4663327301742 -0.765484038769 0.4663327301742 -0.765484038769 0.3464315705187 0.2641124900397
7.078544452062847 0.3926148896408 0.1754400192758 0.4648641623513 -0.765570222634 0.4648641623513 -0.765570222634 0.3471363128894 0.2649350203962
7.078568968568804 0.3941013330446 0.1740436543505 0.4633610849534 -0.765648701970 0.4633610849534 -0.765648701970 0.3478627535323 0.2657720285317
7.078592923308801 0.3956127604465 0.1726049649842 0.4618227759561 -0.765718841135 0.4618227759561 -0.765718841135 0.3486115995601 0.2666235725941
7.078616329155019 0.3971491978729 0.1711226095801 0.4602485077509 -0.765779969444 0.4602485077509 -0.765779969444 0.3493835795632 0.2674896958363
7.078639198684695 0.3987106400143 0.1695952075730 0.4586375480209 -0.765831379639 0.4586375480209 -0.765831379639 0.3501794439779 0.2683704253760
7.078661544186872 0.4002970477735 0.1680213388972 0.4569891607092 -0.765872326316 0.4569891607092 -0.765872326316 0.3509999654286 0.2692657708701
7.078683377669002 0.4019083456872 0.1663995435296 0.4553026070928 -0.765902024319 0.4553026070928 -0.765902024319 0.3518459390335 0.2701757231279
7.078704710863403 0.4035444191961 0.1647283210995 0.4535771469649 -0.765919647092 0.4535771469649 -0.765919647092 0.3527181826771 0.2711002526357
7.078725555233560 0.4052051117896 0.1630061305845 0.4518120399375 -0.765924324997 0.4518120399375 -0.765924324997 0.3536175372413 0.2720393080097
7.078745921980289 0.4068902219911 0.1612313901044 0.4500065468624 -0.765915143617 0.4500065468624 -0.765915143617 0.3545448667808 0.2729928143689
7.078765822047749 0.4085995001988 0.1594024768151 0.4481599313948 -0.765891142014 0.4481599313948 -0.765891142014 0.3555010586531 0.2739606716160
7.078785266129329 0.4103326453722 0.1575177269290 0.4462714616893 -0.765851310979 0.4462714616893 -0.765851310979 0.3564870235815 0.2749427526394
7.078804264673392 0.4120893015632 0.1555754358640 0.4443404122525 -0.765794591267 0.4443404122525 -0.765794591267 0.3575036956503 0.2759389014276
7.078822827888891 0.4138690542908 0.1535738585416 0.4423660659572 -0.765719871813 0.4423660659572 -0.765719871813 0.3585520322237 0.2769489310909
7.078840965750849 0.4156714267522 0.1515112098496 0.4403477162109 -0.765625987964 0.4403477162109 -0.765625987964 0.3596330137836 0.2779726217911
7.078858688005726 0.4174958758772 0.1493856652814 0.4382846693212 -0.765511719697 0.4382846693212 -0.765511719697 0.3607476436576 0.2790097185888
7.078876004176653 0.4193417882229 0.1471953617832 0.4361762470378 -0.765375789876 0.4361762470378 -0.765375789876 0.3618969476648 0.2800599291953
7.078892923568552 0.4212084757106 0.1449383988021 0.4340217892850 -0.765216862517 0.4340217892850 -0.765216862517 0.3630819736319 0.2811229216283
7.078909455273132 0.4230951712011 0.1426128395905 0.4318206571127 -0.765033541097 0.4318206571127 -0.765033541097 0.3643037907889 0.2821983217823
7.078925608173779 0.4250010239267 0.1402167127557 0.4295722358610 -0.764824366923 0.4295722358610 -0.764824366923 0.3655634890248 0.2832857109183
7.078941390950322 0.4269250947708 0.1377480140938 0.4272759385358 -0.764587817555 0.4272759385358 -0.764587817555 0.3668621779938 0.2843846230515
7.078956812083708 0.4288663514147 0.1352047087325 0.4249312094304 -0.764322305315 0.4249312094304 -0.764322305315 0.3682009860734 0.2854945422703
7.078971879860548 0.4308236633444 0.1325847335992 0.4225375279862 -0.764026175900 0.4225375279862 -0.764026175900 0.3695810591168 0.2866148999743
7.078986602377581 0.4327957967509 0.1298860002416 0.4200944128984 -0.763697707099 0.4200944128984 -0.763697707099 0.3710035590465 0.2877450720336
7.079000000000001 0.4346432095106 0.1273019475687 0.4177760492461 -0.763361411098 0.4177760492461 -0.763361411098 0.3723664874856 0.2888050326614
7.079000987546014 0.4347814093103 0.1271063980346 0.4176014264831 -0.763335107668 0.4176014264831 -0.763335107668 0.3724696622215 0.2888843758927
7.079015043095782 0.4367790448986 0.1242437977874 0.4150581792956 -0.762936516347 0.4150581792956 -0.762936516347 0.3739805576065 0.2900320676093
7.079028776579695 0.4387871282120 0.1212960557972 0.4124643350339 -0.762500001078 0.4124643350339 -0.762500001078 0.3755374446735 0.2911873388519
7.079042195377503 0.4408039593539 0.1182610183515 0.4098196156944 -0.762023558421 0.4098196156944 -0.762023558421 0.3771415310932 0.2923493138536