! Sonnet Data File
! From: em Version : 18.56
! From Project: cpw
! Data is De-embedded 
! Data File Written: 06/13/2025 23:42:06
! ->  Created by pysonnet 0.0.4
!< HDATE 06/13/2025 23:19:25
!< MDATE 06/13/2025 23:19:25
# GHZ S RI R 50.00000
7.050000000000001 0.3230261315116 0.2243316320669 0.5281529881604 -0.752555366704 0.5281529881604 -0.752555366704 0.3208306116756 0.2274930390643
7.050200000000000 0.3230560244020 0.2243176611253 0.5281180115200 -0.752570792348 0.5281180115200 -0.752570792348 0.3208466604078 0.2274993273268
7.050400000000001 0.3230861731494 0.2243035546107 0.5280828405645 -0.752586288930 0.5280828405645 -0.752586288930 0.3208627632256 0.2275057801213
7.050600000000000 0.3231165821352 0.2242893104883 0.5280474629907 -0.752601855970 0.5280474629907 -0.752601855970 0.3208789346674 0.2275123809497
7.050800000000001 0.3231472567808 0.2242749258763 0.5280118744769 -0.752617494932 0.5280118744769 -0.752617494932 0.3208951761881 0.2275191329091
7.051000000000000 0.3231782026592 0.2242603978116 0.5279760705801 -0.752633207321 0.5279760705801 -0.752633207321 0.3209114892841 0.2275260391834
7.051200000000001 0.3232094255000 0.2242457232466 0.5279400467318 -0.752648994681 0.5279400467318 -0.752648994681 0.3209278754943 0.2275331030460
7.051400000000000 0.3232409311951 0.2242308990462 0.5279037982335 -0.752664858601 0.5279037982335 -0.752664858601 0.3209443364020 0.2275403278630
7.051600000000001 0.3232727258047 0.2242159219847 0.5278673202522 -0.752680800716 0.5278673202522 -0.752680800716 0.3209608736360 0.2275477170968
7.051800000000000 0.3233048155629 0.2242007887428 0.5278306078150 -0.752696822705 0.5278306078150 -0.752696822705 0.3209774888728 0.2275552743090
7.052000000000000 0.3233372068843 0.2241854959036 0.5277936558047 -0.752712926296 0.5277936558047 -0.752712926296 0.3209941838381 0.2275630031645
7.052200000000000 0.3233699063707 0.2241700399493 0.5277564589542 -0.752729113267 0.5277564589542 -0.752729113267 0.3210109603085 0.2275709074349
7.052400000000000 0.3234029208174 0.2241544172577 0.5277190118409 -0.752745385447 0.5277190118409 -0.752745385447 0.3210278201138 0.2275789910030
7.052600000000001 0.3234362572212 0.2241386240977 0.5276813088811 -0.752761744718 0.5276813088811 -0.752761744718 0.3210447651385 0.2275872578659
7.052800000000000 0.3234699227870 0.2241226566257 0.5276433443237 -0.752778193019 0.5276433443237 -0.752778193019 0.3210617973240 0.2275957121404
7.053000000000001 0.3235039249363 0.2241065108810 0.5276051122441 -0.752794732345 0.5276051122441 -0.752794732345 0.3210789186712 0.2276043580667
7.053200000000000 0.3235382713150 0.2240901827817 0.5275666065380 -0.752811364750 0.5275666065380 -0.752811364750 0.3210961312422 0.2276132000133
7.053400000000001 0.3235729698024 0.2240736681196 0.5275278209134 -0.752828092351 0.5275278209134 -0.752828092351 0.3211134371630 0.2276222424822
7.053600000000000 0.3236080285195 0.2240569625553 0.5274887488847 -0.752844917329 0.5274887488847 -0.752844917329 0.3211308386259 0.2276314901133
7.053800000000001 0.3236434558388 0.2240400616134 0.5274493837640 -0.752861841931 0.5274493837640 -0.752861841931 0.3211483378921 0.2276409476905
7.054000000000000 0.3236792603941 0.2240229606770 0.5274097186540 -0.752878868474 0.5274097186540 -0.752878868474 0.3211659372944 0.2276506201470
7.054200000000001 0.3237154510908 0.2240056549818 0.5273697464392 -0.752895999346 0.5273697464392 -0.752895999346 0.3211836392401 0.2276605125710
7.054400000000000 0.3237520371162 0.2239881396105 0.5273294597778 -0.752913237009 0.5273294597778 -0.752913237009 0.3212014462141 0.2276706302122
7.054600000000001 0.3237890279514 0.2239704094863 0.5272888510919 -0.752930584004 0.5272888510919 -0.752930584004 0.3212193607817 0.2276809784879
7.054800000000000 0.3238264333827 0.2239524593668 0.5272479125583 -0.752948042952 0.5272479125583 -0.752948042952 0.3212373855925 0.2276915629901
7.055000000000001 0.3238642635142 0.2239342838367 0.5272066360987 -0.752965616558 0.5272066360987 -0.752965616558 0.3212555233832 0.2277023894921
7.055200000000000 0.3239025287806 0.2239158773010 0.5271650133689 -0.752983307612 0.5271650133689 -0.752983307612 0.3212737769815 0.2277134639566
7.055400000000001 0.3239412399611 0.2238972339774 0.5271230357477 -0.753001119000 0.5271230357477 -0.753001119000 0.3212921493102 0.2277247925429
7.055600000000000 0.3239804081935 0.2238783478883 0.5270806943259 -0.753019053696 0.5270806943259 -0.753019053696 0.3213106433907 0.2277363816154
7.055800000000001 0.3240200449892 0.2238592128524 0.5270379798934 -0.753037114777 0.5270379798934 -0.753037114777 0.3213292623477 0.2277482377520
7.056000000000000 0.3240601622494 0.2238398224762 0.5269948829267 -0.753055305422 0.5269948829267 -0.753055305422 0.3213480094130 0.2277603677535
7.056200000000000 0.3241007722813 0.2238201701448 0.5269513935757 -0.753073628913 0.5269513935757 -0.753073628913 0.3213668879310 0.2277727786526
7.056400000000000 0.3241418878156 0.2238002490119 0.5269075016495 -0.753092088648 0.5269075016495 -0.753092088648 0.3213859013628 0.2277854777244
7.056600000000000 0.3241835220251 0.2237800519900 0.5268631966010 -0.753110688139 0.5268631966010 -0.753110688139 0.3214050532921 0.2277984724965
7.056800000000001 0.3242256885441 0.2237595717393 0.5268184675119 -0.753129431018 0.5268184675119 -0.753129431018 0.3214243474300 0.2278117707603
7.057000000000000 0.3242684014885 0.2237388006570 0.5267733030759 -0.753148321046 0.5267733030759 -0.753148321046 0.3214437876210 0.2278253805825
7.057200000000001 0.3243116754772 0.2237177308646 0.5267276915813 -0.753167362112 0.5267276915813 -0.753167362112 0.3214633778492 0.2278393103177
7.057400000000000 0.3243555256553 0.2236963541958 0.5266816208928 -0.753186558245 0.5266816208928 -0.753186558245 0.3214831222444 0.2278535686207
7.057600000000001 0.3243999677172 0.2236746621833 0.5266350784321 -0.753205913619 0.5266350784321 -0.753205913619 0.3215030250891 0.2278681644610
7.057800000000000 0.3244450179325 0.2236526460444 0.5265880511571 -0.753225432556 0.5265880511571 -0.753225432556 0.3215230908253 0.2278831071363
7.058000000000001 0.3244906931717 0.2236302966666 0.5265405255414 -0.753245119535 0.5265405255414 -0.753245119535 0.3215433240623 0.2278984062884
7.058200000000000 0.3245370109352 0.2236076045917 0.5264924875504 -0.753264979202 0.5264924875504 -0.753264979202 0.3215637295846 0.2279140719188
7.058400000000001 0.3245839893823 0.2235845599994 0.5264439226179 -0.753285016370 0.5264439226179 -0.753285016370 0.3215843123601 0.2279301144059
7.058600000000000 0.3246316473625 0.2235611526897 0.5263948156206 -0.753305236037 0.5263948156206 -0.753305236037 0.3216050775489 0.2279465445229
7.058800000000001 0.3246800044490 0.2235373720644 0.5263451508510 -0.753325643387 0.5263451508510 -0.753325643387 0.3216260305133 0.2279633734564
7.059000000000000 0.3247290809735 0.2235132071078 0.5262949119891 -0.753346243800 0.5262949119891 -0.753346243800 0.3216471768272 0.2279806128270
7.059200000000001 0.3247788980633 0.2234886463651 0.5262440820724 -0.753367042864 0.5262440820724 -0.753367042864 0.3216685222866 0.2279982747099
7.059400000000000 0.3248294776807 0.2234636779215 0.5261926434633 -0.753388046386 0.5261926434633 -0.753388046386 0.3216900729214 0.2280163716580
7.059600000000001 0.3248808426647 0.2234382893778 0.5261405778163 -0.753409260396 0.5261405778163 -0.753409260396 0.3217118350064 0.2280349167253
7.059800000000000 0.3249330167748 0.2234124678260 0.5260878660408 -0.753430691166 0.5260878660408 -0.753430691166 0.3217338150750 0.2280539234924
7.060000000000000 0.3249860247384 0.2233861998232 0.5260344882642 -0.753452345217 0.5260344882642 -0.753452345217 0.3217560199313 0.2280734060930
7.060200000000000 0.3250398923003 0.2233594713630 0.5259804237904 -0.753474229334 0.5259804237904 -0.753474229334 0.3217784566656 0.2280933792430
7.060400000000000 0.3250946462754 0.2233322678462 0.5259256510573 -0.753496350577 0.5259256510573 -0.753496350577 0.3218011326685 0.2281138582697
7.060600000000001 0.3251503146052 0.2233045740489 0.5258701475908 -0.753518716299 0.5258701475908 -0.753518716299 0.3218240556477 0.2281348591453
7.060800000000000 0.3252069264176 0.2232763740885 0.5258138899561 -0.753541334157 0.5258138899561 -0.753541334157 0.3218472336450 0.2281563985199
7.061000000000001 0.3252645120902 0.2232476513883 0.5257568537057 -0.753564212131 0.5257568537057 -0.753564212131 0.3218706750543 0.2281784937585
7.061200000000000 0.3253231033181 0.2232183886385 0.5256990133247 -0.753587358540 0.5256990133247 -0.753587358540 0.3218943886414 0.2282011629796
7.061400000000001 0.3253827331866 0.2231885677557 0.5256403421708 -0.753610782061 0.5256403421708 -0.753610782061 0.3219183835649 0.2282244250967
7.061600000000000 0.3254434362477 0.2231581698390 0.5255808124126 -0.753634491744 0.5255808124126 -0.753634491744 0.3219426693978 0.2282482998623
7.061800000000001 0.3255052486024 0.2231271751234 0.5255203949614 -0.753658497041 0.5255203949614 -0.753658497041 0.3219672561521 0.2282728079145
7.062000000000000 0.3255682079888 0.2230955629296 0.5254590594002 -0.753682807821 0.5254590594002 -0.753682807821 0.3219921543037 0.2282979708279
7.062200000000001 0.3256323538755 0.2230633116109 0.5253967739065 -0.753707434395 0.5253967739065 -0.753707434395 0.3220173748196 0.2283238111670
7.062400000000000 0.3256977291277 0.2230303972074 0.5253335191256 -0.753732390951 0.5253335191256 -0.753732390951 0.3220429066732 0.2283503864121
7.062600000000001 0.3257653653022 0.2229949179941 0.5252683906805 -0.753755602783 0.5252683906805 -0.753755602783 0.3220694627725 0.2283753598026
7.062800000000000 0.3258343187759 0.2229587273617 0.5252022220907 -0.753779167824 0.5252022220907 -0.753779167824 0.3220963542561 0.2284011186713
7.063000000000001 0.3259046354355 0.2229218004784 0.5251349610911 -0.753803095025 0.5251349610911 -0.753803095025 0.3221236168666 0.2284276562882
7.063200000000000 0.3259763650419 0.2228841099260 0.5250665674934 -0.753827397330 0.5250665674934 -0.753827397330 0.3221512644919 0.2284550011132
7.063400000000001 0.3260495598066 0.2228456269066 0.5249969991141 -0.753852088305 0.5249969991141 -0.753852088305 0.3221793117199 0.2284831830080
7.063600000000000 0.3261242745440 0.2228063211550 0.5249262116496 -0.753877182178 0.5249262116496 -0.753877182178 0.3222077738836 0.2285122333243
7.063800000000001 0.3262005668365 0.2227661608440 0.5248541585411 -0.753902693878 0.5248541585411 -0.753902693878 0.3222366671092 0.2285421849972
7.064000000000000 0.3262784972106 0.2227251124824 0.5247807908292 -0.753928639078 0.5247807908292 -0.753928639078 0.3222660083679 0.2285730726474
7.064200000000000 0.3263581293283 0.2226831408047 0.5247060569973 -0.753955034240 0.5247060569973 -0.753955034240 0.3222958155322 0.2286049326894
7.064400000000000 0.3264395301918 0.2226402086521 0.5246299028026 -0.753981896673 0.5246299028026 -0.753981896673 0.3223261074361 0.2286378034497
7.064600000000000 0.3265227703663 0.2225962768440 0.5245522710930 -0.754009244579 0.5245522710930 -0.754009244579 0.3223569039413 0.2286717252937
7.064800000000001 0.3266079242196 0.2225513040384 0.5244731016095 -0.754037097117 0.5244731016095 -0.754037097117 0.3223882260073 0.2287067407637
7.065000000000000 0.3266950701818 0.2225052465809 0.5243923307726 -0.754065474463 0.5243923307726 -0.754065474463 0.3224200957691 0.2287428947267
7.065200000000001 0.3267842910262 0.2224580583408 0.5243098914501 -0.754094397882 0.5243098914501 -0.754094397882 0.3224525366204 0.2287802345361
7.065400000000000 0.3268756741747 0.2224096905332 0.5242257127052 -0.754123889800 0.5242257127052 -0.754123889800 0.3224855733042 0.2288188102060
7.065600000000001 0.3269693120282 0.2223600915251 0.5241397195238 -0.754153973884 0.5241397195238 -0.754153973884 0.3225192320116 0.2288586746009
7.065800000000000 0.3270653023265 0.2223092066251 0.5240518325167 -0.754184675132 0.5240518325167 -0.754184675132 0.3225535404892 0.2288998836415
7.066000000000001 0.3271637485390 0.2222569778530 0.5239619675963 -0.754216019961 0.5239619675963 -0.754216019961 0.3225885281564 0.2289424965287
7.066200000000000 0.3272647602913 0.2222033436894 0.5238700356237 -0.754248036319 0.5238700356237 -0.754248036319 0.3226242262329 0.2289865759881
7.066400000000001 0.3273684538296 0.2221482388016 0.5237759420239 -0.754280753786 0.5237759420239 -0.754280753786 0.3226606678791 0.2290321885356
7.066600000000000 0.3274749525280 0.2220915937433 0.5236795863647 -0.754314203706 0.5236795863647 -0.754314203706 0.3226978883486 0.2290794047685
7.066800000000001 0.3275843874434 0.2220333346264 0.5235808618965 -0.754348419312 0.5235808618965 -0.754348419312 0.3227359251561 0.2291282996831
7.067000000000000 0.3276968979229 0.2219733827595 0.5234796550475 -0.754383435871 0.5234796550475 -0.754383435871 0.3227748182618 0.2291789530231
7.067200000000001 0.3278126322692 0.2219116542523 0.5233758448701 -0.754419290849 0.5233758448701 -0.754419290849 0.3228146102734 0.2292314496605
7.067400000000000 0.3279317484726 0.2218480595784 0.5232693024322 -0.754456024074 0.5232693024322 -0.754456024074 0.3228553466689 0.2292858800152
7.067600000000001 0.3280544150143 0.2217825030950 0.5231598901478 -0.754493677934 0.5231598901478 -0.754493677934 0.3228970760426 0.2293423405156
7.067800000000000 0.3281808117517 0.2217148825112 0.5230474610378 -0.754532297581 0.5230474610378 -0.754532297581 0.3229398503764 0.2294009341058
7.068000000000001 0.3283111308952 0.2216450883008 0.5229318579157 -0.754571931160 0.5229318579157 -0.754571931160 0.3229837253397 0.2294617708053
7.068200000000000 0.3284455780867 0.2215730030515 0.5228129124851 -0.754612630062 0.5228129124851 -0.754612630062 0.3230287606223 0.2295249683275
7.068400000000000 0.3285843735937 0.2214985007425 0.5226904443413 -0.754654449199 0.5226904443413 -0.754654449199 0.3230750203036 0.2295906527641
7.068600000000001 0.3287277536327 0.2214214459415 0.5225642598623 -0.754697447314 0.5225642598623 -0.754697447314 0.3231225732634 0.2296589593437
7.068800000000000 0.3288759718384 0.2213416929100 0.5224341509762 -0.754741687316 0.5224341509762 -0.754741687316 0.3231714936393 0.2297300332747
7.069000000000001 0.3290293009000 0.2212590846045 0.5222998937875 -0.754787236660 0.5222998937875 -0.754787236660 0.3232218613384 0.2298040306826
7.069200000000000 0.3291880343835 0.2211734515602 0.5221612470448 -0.754834167757 0.5221612470448 -0.754834167757 0.3232737626079 0.2298811196555
7.069400000000001 0.3293524887678 0.2210846106379 0.5220179504255 -0.754882558444 0.5220179504255 -0.754882558444 0.3233272906775 0.2299614814124
7.069600000000000 0.3295230057248 0.2209923636189 0.5218697226143 -0.754932492495 0.5218697226143 -0.754932492495 0.3233825464787 0.2300453116097
7.069800000000001 0.3296999546758 0.2208964956209 0.5217162591435 -0.754984060200 0.5217162591435 -0.754984060200 0.3234396394564 0.2301328218085
7.070000000000000 0.3298837356659 0.2207967733109 0.5215572299627 -0.755037359004 0.5215572299627 -0.755037359004 0.3234986884854 0.2302242411233
7.070200000000001 0.3300747826041 0.2206929428839 0.5213922766937 -0.755092494235 0.5213922766937 -0.755092494235 0.3235598229062 0.2303198180806
7.070400000000000 0.3302735669216 0.2205847277690 0.5212210095268 -0.755149579907 0.5212210095268 -0.755149579907 0.3236231837020 0.2304198227184
7.070600000000001 0.3304806017170 0.2204718260213 0.5210430036977 -0.755208739634 0.5210430036977 -0.755208739634 0.3236889248375 0.2305245489647
7.070800000000000 0.3306964464606 0.2203539073464 0.5208577954818 -0.755270107661 0.5208577954818 -0.755270107661 0.3237572147852 0.2306343173376
7.071000000000001 0.3309217123537 0.2202306096972 0.5206648776228 -0.755333830021 0.5206648776228 -0.755333830021 0.3238282382745 0.2307494780208
7.071200000000000 0.3311570684447 0.2201015353690 0.5204636941049 -0.755400065857 0.5204636941049 -0.755400065857 0.3239021982973 0.2308704143758
7.071400000000001 0.3314032486363 0.2199662465034 0.5202536341509 -0.755468988915 0.5202536341509 -0.755468988915 0.3239793184192 0.2309975469642
7.071600000000000 0.3316610597356 0.2198242598965 0.5200340253132 -0.755540789254 0.5200340253132 -0.755540789254 0.3240598454496 0.2311313381703
7.071800000000001 0.3319313907321 0.2196750409808 0.5198041254919 -0.755615675193 0.5198041254919 -0.755615675193 0.3241440525384 0.2312722975302
7.072000000000000 0.3322152235294 0.2195179968230 0.5195631136804 -0.755693875543 0.5195631136804 -0.755693875543 0.3242322427803 0.2314209878956
7.072174315091596 0.3324744633447 0.2193742256447 0.5193432821736 -0.755764932318 0.5193432821736 -0.755764932318 0.3243126182705 0.2315573732049
7.072200000000000 0.3325136454035 0.2193524679465 0.5193100791961 -0.755775642179 0.5193100791961 -0.755775642179 0.3243247534270 0.2315780325911
7.072344635964552 0.3327392258978 0.2192270613501 0.5191190301307 -0.755837152316 0.5191190301307 -0.755837152316 0.3243945584033 0.2316971980983
7.072400000000000 0.3328278635177 0.2191777187414 0.5190440090990 -0.755861252994 0.5190440090990 -0.755861252994 0.3244219608289 0.2317441237555
7.072511054141539 0.3330096485843 0.2190764055502 0.5188902291003 -0.755910561802 0.5188902291003 -0.755910561802 0.3244781182120 0.2318405354871
7.072600000000000 0.3331592219059 0.2189929261690 0.5187637734303 -0.755951015329 0.5187637734303 -0.755951015329 0.3245242862603 0.2319200321006
7.072673659048094 0.3332858715652 0.2189221570588 0.5186567478319 -0.755985187058 0.5186567478319 -0.755985187058 0.3245633541215 0.2319874600379
7.072800000000001 0.3335092214214 0.2187971663972 0.5184681078229 -0.756045269940 0.5184681078229 -0.756045269940 0.3246322028137 0.2321066183808
7.072832538060680 0.3335680378278 0.2187642117943 0.5184184521902 -0.756061054365 0.5184184521902 -0.756061054365 0.3246503240031 0.2321380482045
7.072987776553632 0.3338562932449 0.2186024626781 0.5181752050666 -0.756138189989 0.5181752050666 -0.756138189989 0.3247390872324 0.2322923782600
7.073000000000000 0.3338795432813 0.2185893989110 0.5181555929127 -0.756144395632 0.5181555929127 -0.756144395632 0.3247462436052 0.2323048469272
7.073139457945035 0.3341507866350 0.2184367995301 0.5179268662892 -0.756216620156 0.5179268662892 -0.756216620156 0.3248297047482 0.2324505303313
7.073200000000001 0.3342720769765 0.2183684475244 0.5178246298528 -0.756248814666 0.5178246298528 -0.756248814666 0.3248670115818 0.2325158017005
7.073287663741554 0.3344516698234 0.2182671089580 0.5176732925304 -0.756296371032 0.5176732925304 -0.756296371032 0.3249222391138 0.2326125864312
7.073400000000000 0.3346889535288 0.2181329775678 0.5174734110334 -0.756358999111 0.5174734110334 -0.756358999111 0.3249951913167 0.2327407054194
7.073432473582223 0.3347590977032 0.2180932742460 0.5174143372122 -0.756377468700 0.5174143372122 -0.756377468700 0.3250167545804 0.2327786304939
7.073573965281247 0.3350732282978 0.2179151752352 0.5171498504079 -0.756459939134 0.5171498504079 -0.756459939134 0.3251133171538 0.2329487484083
7.073600000000001 0.3351325853219 0.2178814683186 0.5170998848836 -0.756475478322 0.5170998848836 -0.756475478322 0.3251315632711 0.2329809424787
7.073712214869812 0.3353942228220 0.2177326882030 0.5168796787434 -0.756543808170 0.5168796787434 -0.756543808170 0.3252119946617 0.2331230280530
7.073800000000000 0.3356057140778 0.2176121794844 0.5167017133050 -0.756598847787 0.5167017133050 -0.756598847787 0.3252770211482 0.2332380865606
7.073847296636943 0.3357222457443 0.2175456857360 0.5166036652945 -0.756629101477 0.5166036652945 -0.756629101477 0.3253128568252 0.2333015593320
7.073979283169421 0.3360574648503 0.2173540365987 0.5163216494816 -0.756715844523 0.5163216494816 -0.756715844523 0.3254159753321 0.2334844342092
7.074000000000001 0.3361114689853 0.2173231101842 0.5162762198805 -0.756729779645 0.5162762198805 -0.756729779645 0.3254325931470 0.2335139340985
7.074108245390788 0.3364000513047 0.2171576055967 0.5160334669618 -0.756804062542 0.5160334669618 -0.756804062542 0.3255214239128 0.2336717467447
7.074200000000000 0.3366534375764 0.2170119483987 0.5158203264350 -0.756869035223 0.5158203264350 -0.756869035223 0.3255994681764 0.2338105450923
7.074234252599461 0.3367501797142 0.2169562534358 0.5157389495188 -0.756893780496 0.5157389495188 -0.756893780496 0.3256292784201 0.2338635931302
7.074357372505968 0.3371080281902 0.2167498365742 0.5154379249494 -0.756985023032 0.5154379249494 -0.756985023032 0.3257396169106 0.2340600717256
7.074400000000001 0.3372357527305 0.2166760082093 0.5153304747793 -0.757017480074 0.5153304747793 -0.757017480074 0.3257790284324 0.2341302932288
7.074477671269332 0.3374737784122 0.2165382070701 0.5151302169465 -0.757077814444 0.5151302169465 -0.757077814444 0.3258525197307 0.2342612830949
7.074595213532622 0.3378476156896 0.2163212124228 0.5148156449807 -0.757172178619 0.5148156449807 -0.757172178619 0.3259680696039 0.2344673300426
7.074600000000000 0.3378632002535 0.2163121512469 0.5148025294367 -0.757176102078 0.5148025294367 -0.757176102078 0.3259728902073 0.2344759278762
7.074710062457688 0.3382297290240 0.2160986954087 0.5144940241766 -0.757268138996 0.5144940241766 -0.757268138996 0.3260863517237 0.2346783176500
7.074800000000001 0.3385413529280 0.2159166875270 0.5142316557425 -0.757346033344 0.5142316557425 -0.757346033344 0.3261829554612 0.2348506513653
7.074822279759108 0.3386203111717 0.2158704939085 0.5141651651877 -0.757365718504 0.5141651651877 -0.757365718504 0.3262074538489 0.2348943533117
7.074931925737340 0.3390195587048 0.2156364407315 0.5138288740673 -0.757464939511 0.5138288740673 -0.757464939511 0.3263314664025 0.2351155467717
7.075000000000000 0.3392767457299 0.2154852441197 0.5136122174398 -0.757528591380 0.5136122174398 -0.757528591380 0.3264113957741 0.2352583468376
7.075039059311132 0.3394291624890 0.2153930311192 0.5134838036465 -0.757562066806 0.5134838036465 -0.757562066806 0.3264592225467 0.2353379205928
7.075143738049182 0.3398503128509 0.2151378475493 0.5131289966468 -0.757654570197 0.5131289966468 -0.757654570197 0.3265912998385 0.2355588029236
7.075200000000001 0.3400846282882 0.2149956210862 0.5129314989370 -0.757706009358 0.5129314989370 -0.757706009358 0.3266648885088 0.2356820962263
7.075246018201068 0.3402806126289 0.2148765202132 0.5127662550101 -0.757749014684 0.5127662550101 -0.757749014684 0.3267264994049 0.2357854313311
7.075345954727482 0.3407202795287 0.2146088534064 0.5123953608724 -0.757845415341 0.5123953608724 -0.757845415341 0.3268649252876 0.2360179214314
7.075400000000000 0.3409664442309 0.2144586937826 0.5121875813075 -0.757899334941 0.5121875813075 -0.757899334941 0.3269425602409 0.2361484782757
7.075443601329752 0.3411695351581 0.2143346455578 0.5120160912313 -0.757943786421 0.5120160912313 -0.757943786421 0.3270066846760 0.2362563914278
7.075539010478712 0.3416286050922 0.2140536889990 0.5116282177874 -0.758044141269 0.5116282177874 -0.758044141269 0.3271518880362 0.2365009621466
7.075600000000001 0.3419331273214 0.2138668833984 0.5113707369834 -0.758110606342 0.5113707369834 -0.758110606342 0.3272484104403 0.2366636669869
7.075632233442887 0.3420977189347 0.2137657697249 0.5112315067828 -0.758146492234 0.5112315067828 -0.758146492234 0.3273006492432 0.2367517570711
7.075723320316046 0.3425771103793 0.2134706671458 0.5108257188363 -0.758250850573 0.5108257188363 -0.758250850573 0.3274530857188 0.2370089023780
7.075800000000000 0.3429978781755 0.2132109049259 0.5104692184862 -0.758342231446 0.5104692184862 -0.758342231446 0.3275872415089 0.2372352730140
7.075812320044119 0.3430670172665 0.2131681538292 0.5104106087734 -0.758357226345 0.5104106087734 -0.758357226345 0.3276093185751 0.2372725269684
7.075899280451504 0.3435676816380 0.2128579952333 0.5099859254552 -0.758465628309 0.5099859254552 -0.758465628309 0.3277694727617 0.2375427625009
7.075984248266757 0.3440793497898 0.2125399494286 0.5095514116003 -0.758576063802 0.5095514116003 -0.758576063802 0.3279336772217 0.2378197434222
7.076000000000001 0.3441767712179 0.2124792691321 0.5094686219713 -0.758597048667 0.5094686219713 -0.758597048667 0.3279650038690 0.2378725686665
7.076067269147705 0.3446022723188 0.2122137668107 0.5091068036050 -0.758688538620 0.5091068036050 -0.758688538620 0.3281020650515 0.2381036069956
7.076148387705986 0.3451367041690 0.2118791898005 0.5086518313581 -0.758803056887 0.5086518313581 -0.758803056887 0.3282747736669 0.2383944933286
7.076200000000000 0.3454895792259 0.2116575907891 0.5083510929858 -0.758878420075 0.5083510929858 -0.758878420075 0.3283891586185 0.2385869662017
7.076227647531013 0.3456829046706 0.2115359525342 0.5081862180527 -0.758919620915 0.5081862180527 -0.758919620915 0.3284519449767 0.2386925453989
7.076305091213400 0.3462411375766 0.2111837805402 0.5077096799929 -0.759038231061 0.5077096799929 -0.759038231061 0.3286337255632 0.2389979090770
7.076380760367852 0.3468116710943 0.2108223904046 0.5072219263966 -0.759158885565 0.5072219263966 -0.759158885565 0.3288202668685 0.2393107331477
7.076400000000000 0.3469608979314 0.2107276203916 0.5070942298069 -0.759190345713 0.5070942298069 -0.759190345713 0.3288691860418 0.2393926708092
7.076454695655520 0.3473947779107 0.2104514894232 0.5067226591940 -0.759281580391 0.5067226591940 -0.759281580391 0.3290117253899 0.2396311693288
7.076526936805856 0.3479907352119 0.2100707752398 0.5062115728227 -0.759406309047 0.5062115728227 -0.759406309047 0.3292082628806 0.2399593722862
7.076597522637961 0.3485998246980 0.2096799354716 0.5056883540173 -0.759533062401 0.5056883540173 -0.759533062401 0.3294100465617 0.2402954996475
7.076600000000000 0.3486217056874 0.2096658619464 0.5056695412635 -0.759537601995 0.5056695412635 -0.759537601995 0.3294173128925 0.2403075872088
7.076666491081441 0.3492223325894 0.2092786473178 0.5051526815934 -0.759661828481 0.5051526815934 -0.759661828481 0.3296172493404 0.2406397120097
7.076733879196792 0.3498585496251 0.2088665771562 0.5046042262322 -0.759792592272 0.5046042262322 -0.759792592272 0.3298300500358 0.2409921729459
7.076799723195315 0.3505087710547 0.2084433801213 0.5040426502555 -0.759925335487 0.5040426502555 -0.759925335487 0.3300486336171 0.2413530490060
7.076800000000000 0.3505115669504 0.2084415558865 0.5040402332144 -0.759925904276 0.5040402332144 -0.759925904276 0.3300495759310 0.2413546021184
7.076864058458571 0.3511732966208 0.2080086996677 0.5034676073984 -0.760060036339 0.5034676073984 -0.760060036339 0.3302731914480 0.2417225097136
7.076926919557398 0.3518524305308 0.2075621671154 0.5028787425786 -0.760196669287 0.5028787425786 -0.760196669287 0.3305039215429 0.2421007275576
7.076988340270480 0.3525464814188 0.2071034011798 0.5022756916617 -0.760335204777 0.5022756916617 -0.760335204777 0.3307410288316 0.2424878779798
7.077000000000001 0.3526818103842 0.2070136611501 0.5021579572603 -0.760362085656 0.5021579572603 -0.760362085656 0.3307874167609 0.2425634367086
7.077048353602512 0.3532557622967 0.2066320074800 0.5016580812199 -0.760475608961 0.5016580812199 -0.760475608961 0.3309847254367 0.2428841393539
7.077106991801918 0.3539805904934 0.2061475780313 0.5010255282907 -0.760617843401 0.5010255282907 -0.760617843401 0.3312352309587 0.2432896929610
7.077164286378195 0.3547212875779 0.2056496907169 0.5003776401284 -0.760761864760 0.5003776401284 -0.760761864760 0.3314927727752 0.2437047229567
7.077200000000000 0.3552002202134 0.2053262096133 0.4999579083746 -0.760854263236 0.4999579083746 -0.760854263236 0.3316601428724 0.2439733858901
7.077220268118832 0.3554781792725 0.2051379087398 0.4997140139536 -0.760907624472 0.4997140139536 -0.760907624472 0.3317575863524 0.2441294163311
7.077274967105867 0.3562515953464 0.2046117800524 0.4990342367005 -0.761055068389 0.4990342367005 -0.761055068389 0.3320299155631 0.2445639628601
7.077328412732039 0.3570418694945 0.2040708367676 0.4983378847592 -0.761204136411 0.4983378847592 -0.761204136411 0.3323100130256 0.2450085550493
7.077380633716590 0.3578493391978 0.2035145945438 0.4976245237162 -0.761354762102 0.4976245237162 -0.761354762102 0.3325981404492 0.2454633880652
7.077400000000001 0.3581581448153 0.2033009172647 0.4973512077748 -0.761411910912 0.4973512077748 -0.761411910912 0.3327088525946 0.2456374777387
7.077431658120696 0.3586743455637 0.2029425519505 0.4968937080922 -0.761506872270 0.4968937080922 -0.761506872270 0.3328945689947 0.2459286596607
7.077481513362545 0.3595172331469 0.2023541898069 0.4961449810796 -0.761660386532 0.4961449810796 -0.761660386532 0.3331995796507 0.2464045700852
7.077530226232071 0.3603783497444 0.2017489704988 0.4953778742742 -0.761815216855 0.4953778742742 -0.761815216855 0.3335134636222 0.2468913219834
7.077577822905346 0.3612580461689 0.2011263372694 0.4945919074133 -0.761971267066 0.4945919074133 -0.761971267066 0.3338365227331 0.2473891202849
7.077600000000000 0.3616811541676 0.2008115038228 0.4942089656666 -0.762040058512 0.4942089656666 -0.762040058512 0.3340017192200 0.2476202946083
7.077624328958655 0.3620678274125 0.2004677944519 0.4938846904822 -0.762120661546 0.4938846904822 -0.762120661546 0.3340622926939 0.2479024375729
7.077669769382227 0.3628202757784 0.1997754249249 0.4932424531965 -0.762264674379 0.4932424531965 -0.762264674379 0.3342053143352 0.2484313958075
7.077714168593676 0.3635968040204 0.1990650204269 0.4925752537962 -0.762410367775 0.4925752537962 -0.762410367775 0.3343631874846 0.2489724697309
7.077757550451111 0.3643976920985 0.1983359198461 0.4918826498718 -0.762557598037 0.4918826498718 -0.762557598037 0.3345361659127 0.2495258758657
7.077799938265966 0.3652232236001 0.1975874392562 0.4911641835317 -0.762706210636 0.4911641835317 -0.762706210636 0.3347245186714 0.2500918323434
7.077800000000001 0.3652244582995 0.1975863217661 0.4911631055971 -0.762706430548 0.4911631055971 -0.762706430548 0.3347248076808 0.2500926756177